 Gaussian 09, Revision D.01,
 Gaussian 09:  EM64L-G09RevD.01 24-Apr-2013

 --------------------------------
 #P pm3 opt nosym freq=anharmonic
 --------------------------------

 --------
 test pm3
 --------
 Symbolic Z-matrix:
 Charge =  0 Multiplicity = 1

 SCF Done:  E(RPM3) = -0.800801172720E-01 A.U. after   12 cycles
 SCF Done:  E(RPM3) = -0.846841860509E-01 A.U. after    9 cycles
 SCF Done:  E(RPM3) = -0.850175969435E-01 A.U. after    8 cycles
 SCF Done:  E(RPM3) = -0.850201658387E-01 A.U. after    7 cycles
 Optimization completed.
    -- Stationary point found.
 Normal termination of Gaussian 09 at Mon May  8 14:39:50 2017.

 -------------------------------------------------------------
 #P Geom=AllCheck Guess=TCheck SCRF=Check GenChk RPM3/ZDO Freq
 -------------------------------------------------------------

 Structure from the checkpoint file:  "/s1/kecelim/Gau-30324.chk"
 --------
 test pm3
 --------
 Charge =  0 Multiplicity = 1

                          Input orientation:
 ---------------------------------------------------------------------
 Center     Atomic      Atomic             Coordinates (Angstroms)
 Number     Number       Type             X           Y           Z
 ---------------------------------------------------------------------
      1          8           0       99.803122  100.833561  101.232083
      2          1           0       99.329450  100.024448  101.073353
      3          1           0       99.162229  101.514792  101.403564
 ---------------------------------------------------------------------

 SCF Done:  E(RPM3) = -0.850201658386E-01 A.U. after    2 cycles
 SCF Done:  E(RPM3) = -0.849993843255E-01 A.U. after    7 cycles
 SCF Done:  E(RPM3) = -0.849999356403E-01 A.U. after    7 cycles
 SCF Done:  E(RPM3) = -0.849190442985E-01 A.U. after    7 cycles
 SCF Done:  E(RPM3) = -0.849190556025E-01 A.U. after    8 cycles
 SCF Done:  E(RPM3) = -0.849103930509E-01 A.U. after    7 cycles
 SCF Done:  E(RPM3) = -0.849149317829E-01 A.U. after    7 cycles

 Alpha  occ. eigenvalues --   -1.34825  -0.64435  -0.53348  -0.45241
 Alpha virt. eigenvalues --    0.14680   0.19424

 Mulliken charges:
               1
     1  O   -0.358731
     2  H    0.179366
     3  H    0.179366
 Sum of Mulliken charges =   0.00000

 Dipole moment (field-independent basis, Debye):
    X=             -1.7309    Y=             -0.1986    Z=              0.0198  Tot=              1.7423
 N-N= 1.731692512555D+01 E-N=-2.299826179517D+01  KE=-5.848447248969D+00
  Exact polarizability:   3.424  -0.318   6.295  -0.181   1.306   0.635
 Approx polarizability:   2.014  -0.196   3.779  -0.111   0.801   0.308
 Leave Link  601 at Mon May  8 14:40:00 2017, MaxMem=  2684354560 cpu:         0.0
 (Enter /tcghome/ygeorgi/fock/g09/l701.exe)
 Compute integral second derivatives.
 ... and contract with generalized density number  0.
 Leave Link  701 at Mon May  8 14:40:00 2017, MaxMem=  2684354560 cpu:         0.1
 (Enter /tcghome/ygeorgi/fock/g09/l702.exe)
 L702 exits ... SP integral derivatives will be done elsewhere.

                      1                      2                      3
                      A                      A                      A
 Frequencies --   1742.0742              3868.3222              3988.7151
 Red. masses --      1.0896                 1.0850                 1.0388
 Frc consts  --      1.9482                 9.5660                 9.7377
 IR Inten    --     13.8592                 6.4697                 6.2055

 - Thermochemistry -
 -------------------
 Temperature   298.150 Kelvin.  Pressure   1.00000 Atm.
 Atom     1 has atomic number  8 and mass  15.99491

 Molecular mass:    18.01056 amu.
 Principal axes and moments of inertia in atomic units:
                           1         2         3
     Eigenvalues --     2.01166   4.24346   6.25512
           X           -0.10890   0.99342   0.03554
           Y            0.97052   0.11398  -0.21238
           Z            0.21503  -0.01137   0.97654
 This molecule is an asymmetric top.
 Rotational symmetry number  1.
 Rotational temperatures (Kelvin)     43.05590    20.41114    13.84687
 Rotational constants (GHZ):         897.14053   425.29955   288.52231
 Zero-point vibrational energy      57415.4 (Joules/Mol)
                                   13.72262 (Kcal/Mol)
 Vibrational temperatures:   2506.45  5565.65  5738.86
          (Kelvin)

 Zero-point correction=                           0.021868 (Hartree/Particle)
 Thermal correction to Energy=                    0.024703
 Thermal correction to Enthalpy=                  0.025647
 Thermal correction to Gibbs Free Energy=         0.003616
 Sum of electronic and zero-point Energies=             -0.063152
 Sum of electronic and thermal Energies=                -0.060317
 Sum of electronic and thermal Enthalpies=              -0.059373
 Sum of electronic and thermal Free Energies=           -0.081404

                     E (Thermal)             CV                S
                      KCal/Mol        Cal/Mol-Kelvin    Cal/Mol-Kelvin
 Total                   15.501              5.993             46.368
 Electronic               0.000              0.000              0.000
 Translational            0.889              2.981             34.608
 Rotational               0.889              2.981             11.755
 Vibrational             13.724              0.031              0.004

 Optimization completed.
    -- Stationary point found.
 Normal termination of Gaussian 09 at Mon May  8 14:40:01 2017.
